#     Step Nr.          Time[fs]        Kin.[a.u.]          Temp[K]            Pot.[a.u.]        Cons Qty[a.u.]        UsedTime[s]
         0            0.000000         0.272187779       300.000000000     -1101.031005889     -1100.758818111         0.000000000
         1            0.500000         0.273748897       301.720633892     -1101.039289568     -1100.765540671        98.145878297
         2            1.000000         0.286804502       316.110263569     -1101.052553912     -1100.765749410        14.244952172
         3            1.500000         0.307435407       338.849240520     -1101.073673410     -1100.766238003        14.858248898
         4            2.000000         0.327796514       361.290850389     -1101.094614863     -1100.766818349        14.965317070
         5            2.500000         0.338776813       373.393120272     -1101.105932127     -1100.767155313        13.278776348
         6            3.000000         0.334790804       368.999819144     -1101.101815171     -1100.767024367        10.896965674
         7            3.500000         0.316947302       349.333063362     -1101.083423173     -1100.766475872         9.934606383
         8            4.000000         0.292267929       322.131945775     -1101.058072635     -1100.765804706         9.530597294
         9            4.500000         0.270116140       297.716680202     -1101.035410328     -1100.765294189        11.094034243
        10            5.000000         0.258319148       284.714268448     -1101.023374986     -1100.765055838        11.593903830
