     192
 i =        0, time =        0.000, E =     -1101.0310058894
  O         0.0002821127       -0.0001724328       -0.0000576946
  O         0.0000970398       -0.0000724680       -0.0000959544
  O        -0.0000784496       -0.0001208093       -0.0001905491
  O         0.0003663153       -0.0002661671        0.0001263828
  O         0.0003407569       -0.0001347180        0.0000448818
  O         0.0001123887       -0.0001273285        0.0002478771
  O        -0.0000030488       -0.0001246845        0.0001525107
  O        -0.0002836478       -0.0002112851       -0.0001469830
  O        -0.0002174164        0.0001809488       -0.0001795075
  O        -0.0000418782        0.0003791812       -0.0001273984
  O        -0.0000833862        0.0003102855       -0.0001314079
  O         0.0001314937       -0.0000571278        0.0002249671
  O        -0.0000022246        0.0000726907       -0.0002291200
  O        -0.0001363319       -0.0000396441        0.0001627745
  O        -0.0000292194        0.0003364718        0.0000013975
  O         0.0003581450        0.0001151393        0.0000491392
  O        -0.0000205319       -0.0002675875        0.0002009311
  O        -0.0000652687        0.0000805363        0.0000632982
  O         0.0001018455        0.0000080031       -0.0000452261
  O        -0.0001281459        0.0001704110        0.0000838529
  O         0.0001045340       -0.0000183514        0.0003782079
  O        -0.0002154680        0.0000071309       -0.0000862519
  O         0.0002679967        0.0000085071       -0.0001125179
  O        -0.0005221006       -0.0000440988        0.0000220989
  O        -0.0002029834        0.0001524640       -0.0001251771
  O         0.0002703766        0.0001899882        0.0002351813
  O         0.0000923290       -0.0002794436        0.0000821857
  O         0.0000594320        0.0000146323       -0.0000023249
  O        -0.0003164649       -0.0000391449        0.0001054799
  O        -0.0002428295        0.0000105576       -0.0000795292
  O        -0.0000225563        0.0002409237        0.0001641572
  O        -0.0001329923        0.0001139838        0.0001802781
  O         0.0003753924        0.0002133917        0.0002159095
  O         0.0000582743       -0.0001716168       -0.0001439815
  O         0.0003458274        0.0001348534       -0.0001329284
  O        -0.0002371044       -0.0002008370        0.0000216513
  O        -0.0003260361        0.0001566369       -0.0000939959
  O        -0.0000931072        0.0003343462        0.0000897062
  O        -0.0000015762       -0.0000535451       -0.0000172126
  O        -0.0002823006       -0.0000077820        0.0000164241
  O         0.0000283129        0.0000262256       -0.0003069037
  O        -0.0001013086       -0.0001972255       -0.0001130314
  O        -0.0001089105       -0.0000852893       -0.0000852445
  O         0.0000439679       -0.0001153548       -0.0000270299
  O        -0.0003137643       -0.0003061099       -0.0000241154
  O        -0.0000560339       -0.0000946989       -0.0001919427
  O         0.0001072628        0.0000493081       -0.0003913857
  O         0.0000827858        0.0002746341       -0.0000112713
  O        -0.0002924881       -0.0000462001       -0.0000807234
  O         0.0001132067       -0.0000909162        0.0000498008
  O         0.0001005529       -0.0000093907       -0.0000195585
  O         0.0002056694       -0.0001882323        0.0002030212
  O         0.0000928173        0.0003914898        0.0001771327
  O         0.0000064991        0.0000222151        0.0000309301
  O        -0.0002954789       -0.0000519337       -0.0003271947
  O        -0.0001610296       -0.0001748298       -0.0000501030
  O         0.0002242371       -0.0000379107       -0.0001119394
  O         0.0003282786       -0.0000859943        0.0002385626
  O         0.0000349563       -0.0000222959        0.0002468450
  O         0.0000525462       -0.0000841069       -0.0000804104
  O        -0.0000982977        0.0001296806        0.0001905405
  O         0.0000846017       -0.0002023972        0.0000136937
  O        -0.0000411040        0.0000336148       -0.0000813744
  O         0.0001810152       -0.0001500119        0.0001358703
  H        -0.0006955709        0.0006934787       -0.0010131210
  H         0.0000848621       -0.0006145920        0.0009864990
  H        -0.0005499805        0.0005723126        0.0009327581
  H         0.0009163340        0.0005420156        0.0011941919
  H         0.0003803056        0.0001849290        0.0001358191
  H         0.0007398353        0.0002292733       -0.0017305600
  H         0.0005390652        0.0007085315        0.0016605228
  H        -0.0000630296       -0.0006803584       -0.0003833443
  H         0.0004548143       -0.0012993174        0.0004897048
  H        -0.0004860796        0.0010594375       -0.0005941021
  H        -0.0006367513       -0.0004427347       -0.0003470190
  H        -0.0005883727       -0.0013559148       -0.0002764752
  H        -0.0007250952       -0.0010889051        0.0013623109
  H        -0.0004496359        0.0000691875       -0.0010821097
  H         0.0002745182       -0.0002220351       -0.0008740981
  H         0.0001312971        0.0015235982       -0.0004086928
  H        -0.0003816490        0.0006426557        0.0014341303
  H        -0.0014415548        0.0003095877       -0.0007391137
  H        -0.0001161496       -0.0012905187       -0.0000318574
  H        -0.0004625188        0.0008727955        0.0006295426
  H        -0.0007663457       -0.0002913701       -0.0003942380
  H        -0.0002981099        0.0003668153        0.0007149154
  H        -0.0000963039        0.0011762391       -0.0001196467
  H         0.0006163032       -0.0005803238        0.0004453640
  H         0.0012424696        0.0008336298       -0.0007810626
  H        -0.0002031535        0.0004367710       -0.0001962431
  H        -0.0004994959       -0.0000139778       -0.0007868227
  H         0.0003468881        0.0001247104        0.0000500299
  H        -0.0002771033        0.0000275679       -0.0014571192
  H        -0.0002569649        0.0004956921       -0.0007059717
  H        -0.0007813235        0.0001657833        0.0009807917
  H         0.0002669613        0.0001809727       -0.0001652996
  H         0.0005759009        0.0003664125       -0.0010945713
  H         0.0002869900        0.0005330157       -0.0006548288
  H        -0.0000580941        0.0004553439       -0.0000056260
  H        -0.0000129742       -0.0006880864        0.0001377533
  H        -0.0008219975       -0.0006236540       -0.0003234103
  H         0.0007994263       -0.0005799755       -0.0002844468
  H         0.0001847563       -0.0008079246       -0.0002806412
  H         0.0002904235       -0.0002646902       -0.0000740740
  H         0.0020372411        0.0007087076        0.0000248416
  H        -0.0012610195        0.0003890976        0.0010819540
  H         0.0007251793       -0.0015164975        0.0010229326
  H        -0.0011883637        0.0007546825       -0.0001242844
  H        -0.0001294952        0.0000366678        0.0005829166
  H         0.0008826404       -0.0003334042        0.0008337179
  H         0.0007899815       -0.0009746786       -0.0003712044
  H         0.0010418470        0.0010211300        0.0005675906
  H        -0.0020343477       -0.0004928159       -0.0000198135
  H         0.0002825567       -0.0001594978        0.0007159011
  H        -0.0016679328        0.0008209503       -0.0016053302
  H         0.0005933909       -0.0001304286       -0.0010595852
  H        -0.0000061671       -0.0007537668       -0.0002578762
  H         0.0005245536        0.0006322308        0.0001823801
  H        -0.0000389994        0.0005162575       -0.0012550667
  H         0.0010433795       -0.0006572035        0.0002316796
  H         0.0002952821       -0.0003722809        0.0004606998
  H        -0.0000864852       -0.0007227568        0.0003183018
  H         0.0000858484       -0.0007099278       -0.0001432919
  H         0.0003317995        0.0013495674       -0.0005169684
  H        -0.0006187514        0.0002051946       -0.0004538041
  H         0.0008597708       -0.0003425043        0.0008682687
  H        -0.0007215158       -0.0010479845       -0.0008269783
  H         0.0003436457       -0.0002186551        0.0001490227
  H         0.0008003590       -0.0010762728       -0.0007845635
  H        -0.0003608003       -0.0008413354        0.0005065053
  H        -0.0008084577        0.0010743005        0.0001124488
  H        -0.0000859761       -0.0002537698       -0.0000240323
  H         0.0014479336        0.0007898693       -0.0007940698
  H        -0.0002517991        0.0007709956        0.0007027042
  H        -0.0001852293        0.0001607738       -0.0001428247
  H        -0.0007359179       -0.0003867787        0.0006958750
  H        -0.0001576250        0.0004832908       -0.0000334727
  H         0.0004006575        0.0011512359        0.0001072472
  H        -0.0000935799        0.0001963122        0.0001993818
  H         0.0012158709        0.0005190323        0.0006264660
  H         0.0004423915        0.0001675126        0.0015505156
  H        -0.0001864385        0.0003359715       -0.0003530691
  H         0.0012467472        0.0004051841        0.0000253282
  H         0.0005228985       -0.0001174545       -0.0008264458
  H        -0.0011412505       -0.0003798446       -0.0005121181
  H        -0.0006434298        0.0000729909       -0.0002780877
  H         0.0000152087        0.0001229666        0.0002536464
  H        -0.0011915441       -0.0005540009       -0.0005350328
  H         0.0004274270       -0.0002939790        0.0007277740
  H         0.0000746386       -0.0004560901       -0.0001290473
  H         0.0006919554        0.0011853112       -0.0015416033
  H         0.0007665909        0.0005170087        0.0001480541
  H        -0.0003738920       -0.0007131749       -0.0002011668
  H        -0.0008746427       -0.0010262121       -0.0003864127
  H        -0.0004067821       -0.0008772249        0.0012632775
  H        -0.0003743366       -0.0015093521        0.0009782887
  H         0.0000042456        0.0010471044       -0.0005910213
  H        -0.0005175319       -0.0009822621       -0.0000238421
  H         0.0000296464       -0.0018663684       -0.0002246486
  H         0.0003869095       -0.0007438569        0.0001195940
  H         0.0017444853        0.0000542067        0.0006355780
  H        -0.0004604870        0.0006740722        0.0008312824
  H         0.0000005102        0.0005738134       -0.0006006989
  H        -0.0007988004        0.0007214609        0.0004000292
  H        -0.0009875183       -0.0001192980       -0.0007942029
  H        -0.0009203281       -0.0007880707       -0.0010562264
  H         0.0008497684        0.0000018882       -0.0000420038
  H         0.0000885043       -0.0000800992        0.0001357596
  H        -0.0003638578        0.0001286602       -0.0008627712
  H        -0.0008503868       -0.0005205051       -0.0000109684
  H         0.0002964084       -0.0003816789       -0.0008294393
  H        -0.0011091804        0.0000548793        0.0009015326
  H        -0.0003909528        0.0020569671       -0.0000877238
  H        -0.0001629289       -0.0003367777        0.0007330869
  H         0.0009887547        0.0006675308       -0.0007685092
  H        -0.0007773800       -0.0011741045       -0.0000972914
  H         0.0014867235        0.0002209736        0.0009760234
  H         0.0000725153        0.0007876432        0.0000446354
  H        -0.0005690084        0.0006243653       -0.0007747194
  H        -0.0003713995        0.0006020094        0.0002002908
  H        -0.0005454348        0.0005493810       -0.0004966788
  H         0.0008508869        0.0000116530       -0.0002307770
  H         0.0002326791        0.0000986778       -0.0002449173
  H        -0.0012199620       -0.0005383606       -0.0003275338
  H         0.0003107973        0.0003292085       -0.0003632064
  H        -0.0006769453        0.0009072091        0.0002671356
  H         0.0028595427       -0.0007097868       -0.0001487418
  H         0.0010229134       -0.0005068764        0.0009743576
  H         0.0008719805        0.0004621316        0.0002561315
  H        -0.0001971260        0.0002003473        0.0008185858
  H         0.0009673585        0.0010261200       -0.0009080527
  H        -0.0002460633        0.0008269808        0.0000197112
     192
 i =        1, time =        0.500, E =     -1101.0392895678
  O         0.0002819506       -0.0001930264       -0.0000352358
  O         0.0000981714       -0.0000563957       -0.0000862237
  O        -0.0000684567       -0.0001302597       -0.0001741081
  O         0.0003514423       -0.0002748480        0.0001445252
  O         0.0003438665       -0.0001597047        0.0000601444
  O         0.0001380481       -0.0001389078        0.0002437782
  O        -0.0000191203       -0.0001038629        0.0001352050
  O        -0.0002845084       -0.0001861282       -0.0001669078
  O        -0.0002113907        0.0001820649       -0.0001968095
  O        -0.0000233780        0.0003513716       -0.0001415375
  O        -0.0000998973        0.0003001779       -0.0001529824
  O         0.0001257841       -0.0000657724        0.0002110132
  O         0.0000047014        0.0000834933       -0.0002569460
  O        -0.0001110127       -0.0000327588        0.0001576887
  O        -0.0000091357        0.0003262075       -0.0000216255
  O         0.0003563016        0.0001379920        0.0000605204
  O        -0.0000275534       -0.0002523263        0.0002276451
  O        -0.0000659151        0.0000710400        0.0000824874
  O         0.0001097810        0.0000293608       -0.0000427724
  O        -0.0001087699        0.0001436707        0.0000684935
  O         0.0001269037       -0.0000168943        0.0003619202
  O        -0.0002086436        0.0000205715       -0.0000971587
  O         0.0002699891        0.0000243796       -0.0001030201
  O        -0.0005265119       -0.0000280104        0.0000153569
  O        -0.0002058340        0.0001244894       -0.0001278772
  O         0.0002714586        0.0001858491        0.0002463216
  O         0.0000813673       -0.0003123883        0.0000941584
  O         0.0000673350        0.0000209030        0.0000167918
  O        -0.0002936364       -0.0000514466        0.0000916403
  O        -0.0002067743        0.0000131209       -0.0000845470
  O        -0.0000175890        0.0002601802        0.0001682345
  O        -0.0001286231        0.0001092330        0.0002004682
  O         0.0004007880        0.0001975199        0.0002105710
  O         0.0000726007       -0.0001732327       -0.0001543537
  O         0.0003621480        0.0001235136       -0.0001339073
  O        -0.0002477677       -0.0001790694        0.0000328687
  O        -0.0003130439        0.0001900904       -0.0000913475
  O        -0.0000739455        0.0003334301        0.0001031031
  O         0.0000159857       -0.0000392840       -0.0000305512
  O        -0.0002635617       -0.0000083502        0.0000281832
  O         0.0000368786        0.0000064388       -0.0003101043
  O        -0.0000823732       -0.0002025047       -0.0001200182
  O        -0.0000849630       -0.0000873806       -0.0000799334
  O         0.0000397397       -0.0000788705       -0.0000350176
  O        -0.0002957567       -0.0003060329       -0.0000288328
  O        -0.0000371546       -0.0000967743       -0.0001763523
  O         0.0001351374        0.0000377851       -0.0003820110
  O         0.0001012719        0.0002760208        0.0000090046
  O        -0.0002635392       -0.0000623011       -0.0000907881
  O         0.0001264241       -0.0001127283        0.0000228144
  O         0.0001219760       -0.0000329552       -0.0000051076
  O         0.0001930266       -0.0001711820        0.0001822818
  O         0.0001009691        0.0003994537        0.0001862248
  O         0.0000206700        0.0000474509        0.0000410412
  O        -0.0002776075       -0.0000659508       -0.0003173413
  O        -0.0001478155       -0.0001518829       -0.0000550304
  O         0.0002240483       -0.0000130531       -0.0001180447
  O         0.0003312336       -0.0000695827        0.0002670382
  O         0.0000523893       -0.0000194091        0.0002318199
  O         0.0000475220       -0.0001074654       -0.0001018037
  O        -0.0001028292        0.0001463121        0.0001882634
  O         0.0000913235       -0.0001738890        0.0000055805
  O        -0.0000221379        0.0000208602       -0.0000615312
  O         0.0001975329       -0.0001473603        0.0001130277
  H        -0.0006385300        0.0009574520       -0.0008729346
  H         0.0000728325       -0.0005312717        0.0005164062
  H        -0.0006883424        0.0005740059        0.0009996998
  H         0.0011065703        0.0003356394        0.0008568891
  H         0.0003299502       -0.0000050875       -0.0000672489
  H         0.0005919273        0.0005717841       -0.0018039915
  H         0.0005446622        0.0008443560        0.0013257982
  H         0.0001616652       -0.0006278952       -0.0003042683
  H         0.0002087921       -0.0011339667        0.0002509618
  H        -0.0003135406        0.0012462693       -0.0005391203
  H        -0.0006864536       -0.0002668676       -0.0004924329
  H        -0.0009658592       -0.0013627427       -0.0001227967
  H        -0.0008812871       -0.0011066195        0.0014560281
  H        -0.0001614543       -0.0002184410       -0.0010363814
  H         0.0003904456       -0.0001682525       -0.0006887427
  H         0.0000607106        0.0011107235       -0.0002639425
  H        -0.0002788456        0.0004144830        0.0015547051
  H        -0.0016059850        0.0004671540       -0.0005891532
  H        -0.0003928951       -0.0009307606       -0.0000867019
  H        -0.0004120278        0.0009070132        0.0009322093
  H        -0.0007828843        0.0000132650       -0.0002013618
  H        -0.0000338301        0.0001559104        0.0008563494
  H         0.0001622186        0.0011852922       -0.0001189934
  H         0.0004129984       -0.0005093268        0.0006762625
  H         0.0014251688        0.0005438992       -0.0005894827
  H        -0.0004529549        0.0005430356        0.0000561180
  H        -0.0007099370       -0.0000297421       -0.0003654008
  H         0.0002070437        0.0000252359       -0.0002750837
  H        -0.0006796356       -0.0001015026       -0.0014357372
  H        -0.0001698630        0.0008272823       -0.0004162208
  H        -0.0006953137       -0.0001190249        0.0010910521
  H         0.0001824204        0.0000490391       -0.0003869490
  H         0.0003818239        0.0001527090       -0.0013473002
  H         0.0005761210        0.0005845087       -0.0008532075
  H        -0.0001871817        0.0006981435       -0.0000559115
  H         0.0001111190       -0.0008050560       -0.0000948125
  H        -0.0011220229       -0.0008221128       -0.0002786188
  H         0.0009342207       -0.0007111824       -0.0003750208
  H        -0.0001579085       -0.0007065469       -0.0001597180
  H         0.0003267356        0.0001543507       -0.0000175035
  H         0.0018227860        0.0006457789        0.0003221873
  H        -0.0013856333        0.0004220996        0.0010122556
  H         0.0007929514       -0.0016918966        0.0009736252
  H        -0.0013517088        0.0006862211        0.0002268715
  H        -0.0003059649       -0.0001535938        0.0005739147
  H         0.0010520468       -0.0004746247        0.0007010058
  H         0.0007941699       -0.0011246748       -0.0004767827
  H         0.0011227976        0.0010088567        0.0008305354
  H        -0.0018015241       -0.0001691031       -0.0002249129
  H         0.0001463333       -0.0000403842        0.0008898607
  H        -0.0013849982        0.0009250969       -0.0017643754
  H         0.0003073419       -0.0001428344       -0.0010978254
  H         0.0001357074       -0.0003946674       -0.0001287092
  H         0.0004658279        0.0007302215       -0.0002381144
  H        -0.0001591791        0.0005955995       -0.0013906611
  H         0.0009784127       -0.0009106107        0.0001589243
  H        -0.0000095194       -0.0000696976        0.0005638348
  H        -0.0002216188       -0.0008510583        0.0004652866
  H        -0.0002602825       -0.0004989957       -0.0002177984
  H         0.0002716092        0.0009927593       -0.0003371262
  H        -0.0008319244        0.0000684466       -0.0006583429
  H         0.0010873293       -0.0004803183        0.0009605358
  H        -0.0004637281       -0.0008955717       -0.0009946359
  H         0.0001031431       -0.0003030539        0.0000310046
  H         0.0006551310       -0.0008309198       -0.0004551323
  H        -0.0006030087       -0.0008167961        0.0003653827
  H        -0.0009324104        0.0011626686       -0.0000341751
  H        -0.0002386715       -0.0002417735        0.0003376762
  H         0.0012325892        0.0009294621       -0.0009429904
  H        -0.0002727761        0.0007390496        0.0009229824
  H        -0.0000298401        0.0001918218       -0.0000034233
  H        -0.0007884765       -0.0007247846        0.0004477996
  H        -0.0004664684        0.0003497802       -0.0000181531
  H         0.0005348864        0.0008540140       -0.0000117243
  H        -0.0000993994        0.0005168482        0.0002009095
  H         0.0008796415        0.0002002379        0.0004181785
  H         0.0000704634        0.0003611039        0.0015255408
  H        -0.0000714002       -0.0000758096       -0.0000890815
  H         0.0012324514        0.0005880198       -0.0000367976
  H         0.0002037407       -0.0003248872       -0.0009201407
  H        -0.0014302078       -0.0002078429       -0.0002360288
  H        -0.0005858014        0.0004419294       -0.0004350979
  H        -0.0001694839        0.0000356472        0.0000879818
  H        -0.0013780901       -0.0004245872       -0.0002637836
  H         0.0002312540       -0.0004064940        0.0006890347
  H        -0.0001385104       -0.0002434463       -0.0001553442
  H         0.0006230911        0.0007352527       -0.0012983888
  H         0.0009310449        0.0004394048       -0.0000182797
  H        -0.0004752991       -0.0004954339       -0.0001575371
  H        -0.0010612094       -0.0012934831       -0.0003901242
  H        -0.0006093431       -0.0008069088        0.0008526676
  H        -0.0004803384       -0.0015937787        0.0011353538
  H        -0.0001476715        0.0011183639       -0.0003335053
  H        -0.0008011547       -0.0009303157       -0.0003546786
  H        -0.0000769826       -0.0016777096       -0.0004595456
  H         0.0001771841       -0.0009192081       -0.0000046016
  H         0.0013319237       -0.0000159427        0.0007204093
  H        -0.0004283450        0.0010005096        0.0008005933
  H        -0.0002567953        0.0006040150       -0.0003439983
  H        -0.0007292780        0.0009979343        0.0005145887
  H        -0.0011674899        0.0002427755       -0.0008381124
  H        -0.0010348419       -0.0008808036       -0.0012452059
  H         0.0010892362        0.0001168786        0.0002726716
  H        -0.0000052306       -0.0004460236        0.0002246850
  H        -0.0003095148        0.0000001215       -0.0010601195
  H        -0.0011301862       -0.0005577544        0.0000453507
  H        -0.0000825537       -0.0005039664       -0.0008672359
  H        -0.0009141407       -0.0001467181        0.0007785233
  H        -0.0004526880        0.0021913337       -0.0003719889
  H        -0.0003933904       -0.0002486538        0.0008633667
  H         0.0007918129        0.0005220603       -0.0010201707
  H        -0.0008369322       -0.0013120336        0.0002361494
  H         0.0016662425       -0.0000999968        0.0009259939
  H        -0.0000797175        0.0007651331        0.0002315062
  H        -0.0003255062        0.0006776534       -0.0008464529
  H        -0.0006005326        0.0002786319       -0.0001246955
  H        -0.0007758960        0.0006109237       -0.0005747664
  H         0.0007335572       -0.0000351893        0.0000762320
  H         0.0005075595        0.0002735174        0.0000562812
  H        -0.0014354244       -0.0004706889       -0.0002665536
  H         0.0003999083        0.0002336018       -0.0005832309
  H        -0.0006345735        0.0007519807        0.0005079694
  H         0.0025840321       -0.0010706305       -0.0000014205
  H         0.0011839514       -0.0006077982        0.0008427600
  H         0.0006129911        0.0007738685        0.0002534584
  H        -0.0002234876        0.0000252483        0.0004932767
  H         0.0009467799        0.0011043765       -0.0004581375
  H        -0.0004816072        0.0007048264       -0.0001230340
     192
 i =        2, time =        1.000, E =     -1101.0525539119
  O         0.0002836134       -0.0002097470       -0.0000075404
  O         0.0000927844       -0.0000378466       -0.0000705912
  O        -0.0000601270       -0.0001351174       -0.0001570621
  O         0.0003337748       -0.0002856671        0.0001684766
  O         0.0003515529       -0.0001800731        0.0000762683
  O         0.0001577684       -0.0001493428        0.0002413465
  O        -0.0000443200       -0.0000795546        0.0001234533
  O        -0.0002818921       -0.0001509063       -0.0001897018
  O        -0.0002092276        0.0001814607       -0.0002061124
  O        -0.0000009954        0.0003181127       -0.0001462356
  O        -0.0001133318        0.0002878533       -0.0001741016
  O         0.0001211710       -0.0000738859        0.0001980710
  O         0.0000100615        0.0000945880       -0.0002807458
  O        -0.0000856548       -0.0000257318        0.0001507828
  O         0.0000069203        0.0003146339       -0.0000459906
  O         0.0003547255        0.0001573288        0.0000713734
  O        -0.0000307226       -0.0002392159        0.0002481357
  O        -0.0000679298        0.0000641297        0.0000990150
  O         0.0001151920        0.0000414090       -0.0000411369
  O        -0.0000887371        0.0001171031        0.0000528773
  O         0.0001446243       -0.0000132998        0.0003362544
  O        -0.0002025873        0.0000246732       -0.0001080242
  O         0.0002694347        0.0000379745       -0.0000947759
  O        -0.0005303599       -0.0000187867        0.0000084135
  O        -0.0002157253        0.0000924252       -0.0001225090
  O         0.0002696784        0.0001810141        0.0002497364
  O         0.0000693026       -0.0003444727        0.0001013369
  O         0.0000758664        0.0000250690        0.0000262396
  O        -0.0002714526       -0.0000686086        0.0000813606
  O        -0.0001659680        0.0000224817       -0.0000930476
  O        -0.0000097631        0.0002698834        0.0001745016
  O        -0.0001240697        0.0001049034        0.0002191276
  O         0.0004246649        0.0001757209        0.0001938405
  O         0.0000805071       -0.0001738799       -0.0001653860
  O         0.0003779213        0.0001130859       -0.0001278632
  O        -0.0002576665       -0.0001573793        0.0000449625
  O        -0.0002998632        0.0002237594       -0.0000887068
  O        -0.0000497496        0.0003371291        0.0001194675
  O         0.0000305609       -0.0000238660       -0.0000434013
  O        -0.0002445049       -0.0000074637        0.0000400408
  O         0.0000407552       -0.0000097444       -0.0003098907
  O        -0.0000648963       -0.0002057692       -0.0001239281
  O        -0.0000597323       -0.0000893733       -0.0000740325
  O         0.0000366521       -0.0000331110       -0.0000517814
  O        -0.0002822974       -0.0003134223       -0.0000331433
  O        -0.0000237810       -0.0001050524       -0.0001481184
  O         0.0001605894        0.0000283732       -0.0003699594
  O         0.0001174405        0.0002661706        0.0000326021
  O        -0.0002227298       -0.0000689275       -0.0001024607
  O         0.0001417576       -0.0001303464       -0.0000020697
  O         0.0001339652       -0.0000585119        0.0000009833
  O         0.0001829070       -0.0001558181        0.0001642759
  O         0.0001013350        0.0004049685        0.0001881271
  O         0.0000302658        0.0000752048        0.0000526744
  O        -0.0002643504       -0.0000774538       -0.0003110900
  O        -0.0001356924       -0.0001333829       -0.0000552347
  O         0.0002254933        0.0000069438       -0.0001223831
  O         0.0003313440       -0.0000551753        0.0002945368
  O         0.0000645880       -0.0000143807        0.0002077568
  O         0.0000371470       -0.0001256623       -0.0001217631
  O        -0.0001073036        0.0001622470        0.0001803159
  O         0.0001072421       -0.0001461661       -0.0000058906
  O        -0.0000044371        0.0000100624       -0.0000371307
  O         0.0002136572       -0.0001448755        0.0000817627
  H        -0.0005874165        0.0011604952       -0.0007487078
  H         0.0000363894       -0.0004458456       -0.0000188263
  H        -0.0007295494        0.0005972209        0.0010161344
  H         0.0013034232        0.0000690095        0.0004733240
  H         0.0002737462       -0.0002199304       -0.0002939541
  H         0.0004763360        0.0008676686       -0.0018604810
  H         0.0005478577        0.0009983391        0.0008579320
  H         0.0004372835       -0.0005613735       -0.0001877005
  H        -0.0000591121       -0.0009668928       -0.0000031546
  H        -0.0001931208        0.0013606629       -0.0004792447