     192
 i =        0, time =        0.000, E =     -1101.0310058894
  O        12.2353220000        1.3766420000       10.8698800000
  O         6.4453900000        3.7069400000        8.6507940000
  O         0.0859770000        2.1813220000        8.2766630000
  O        12.0525540000        2.6713660000        2.1471990000
  O        12.2500360000        4.1909300000       12.0920140000
  O         7.1874220000        0.9590620000        4.7334690000
  O         8.3464570000        7.2100400000        4.6676440000
  O        12.3615460000       11.5278750000        8.1068870000
  O         3.2999840000        4.4408160000        9.1932750000
  O         2.8558290000        3.7599090000        6.5528150000
  O         1.3924940000        6.3627530000        0.5861720000
  O         1.8586450000        8.6940130000        2.0687380000
  O         3.7702310000       12.0945190000        8.6521830000
  O         6.4325080000        3.6698280000        2.7724180000
  O         1.9987240000        1.8202170000        4.8764400000
  O         8.2485810000        2.4047300000        6.9313030000
  O         5.7538140000        3.3600290000       12.4615340000
  O        11.3222120000        5.6492390000        2.2367980000
  O         4.2773180000        2.1139560000       10.5908080000
  O         5.4050150000        3.3492470000        5.4847020000
  O         6.4932780000       11.8699580000        0.6849120000
  O         3.2752500000        2.3465760000        2.4252410000
  O         7.9810030000        6.3525120000        7.5079700000
  O         5.9859900000        6.5128540000       12.1946480000
  O        10.6367140000       11.8568720000       12.2095400000
  O         9.3122830000        3.6703840000        3.5085940000
  O         1.1068850000        5.8303010000        6.6386950000
  O         8.0080070000        3.3263630000       10.8698180000
  O        12.4030000000        9.6874050000       11.7619010000
  O         4.2197820000        7.0853150000        8.1534700000
  O         3.7815570000        8.2038210000       11.5632720000
  O        11.0888980000        4.5320810000        7.8094750000
  O        10.3875480000        8.4088900000        1.0178820000
  O         1.9790160000        6.4180910000       10.3741590000
  O         4.6605470000        0.5496660000        5.6174030000
  O         8.7458800000       12.2562570000        8.0893830000
  O         2.6620410000       10.4898900000        0.0929800000
  O         7.2416610000       10.4718150000        4.2269460000
  O         2.2768270000        0.2766470000       10.8104170000
  O         8.8877330000        0.9468770000        1.3338850000
  O         1.9435540000        8.0885520000        7.5676500000
  O         9.6679420000        8.0567590000        9.8688470000
  O        10.9054910000        8.3396380000        6.4847820000
  O         3.5077330000        4.8624020000        1.5574390000
  O         8.0104570000        8.6428460000       12.0559690000
  O         8.3744460000       10.0359320000        6.6903090000
  O         5.6352470000        6.0768750000        5.5639930000
  O        11.7284340000        1.6019060000        5.0794750000
  O         9.7711340000        9.8141140000        3.5487030000
  O         3.9443550000       10.5634500000        4.6875360000
  O         0.8903570000        6.3822870000        4.0658060000
  O         6.8624470000        6.4251820000        2.4882020000
  O         3.8139630000        6.5951220000        3.7626490000
  O         6.5624480000        8.2954630000        8.8071820000
  O         9.8094550000        0.1433250000        3.8865530000
  O         4.1170740000       11.6612250000        2.2216790000
  O         5.2953170000        8.7355610000        2.7631830000
  O         9.9719990000        5.3793390000        5.3403780000
  O        12.2547080000        8.6438740000        3.9571160000
  O         2.3442740000       10.7612740000        6.8291620000
  O         7.0134160000        0.6434880000       10.5187970000
  O         5.1523490000       10.2336240000       10.3593880000
  O        11.1842780000        5.8840640000       10.2982790000
  O        12.2523350000        8.9741420000        9.0708310000
  H        12.4151390000        2.2331250000       11.2576110000
  H        11.9224760000        1.5737990000        9.9869940000
  H         5.6081920000        3.3715430000        8.9714820000
  H         6.7312260000        3.0608510000        8.0049620000
  H        -0.1692050000        1.5655940000        7.5896450000
  H        -0.4554400000        2.9547710000        8.1189390000
  H        12.1251680000        2.8264630000        1.2054430000
  H        12.8888280000        2.9697610000        2.5047450000
  H        11.5532550000        4.3866130000       11.4655660000
  H        12.8182810000        4.9608080000       12.0671510000
  H         7.0494950000        1.7723440000        4.2478980000
  H         6.3530190000        0.7981450000        5.1740470000
  H         7.7818500000        7.3848520000        5.4205660000
  H         9.1032030000        6.7540170000        5.0358980000
  H        12.7712320000       11.7886450000        8.9317440000
  H        12.0180350000       10.6506520000        8.2763340000
  H         3.5572450000        3.7925290000        9.8488460000
  H         2.5438440000        4.8841020000        9.5779580000
  H         2.3202350000        4.5212500000        6.3298130000
  H         2.8721280000        3.7499630000        7.5098240000
  H         1.2096850000        7.1213910000        1.1405010000
  H         2.2388850000        6.0388010000        0.8942450000
  H         2.7631090000        8.8563530000        2.3367350000
  H         1.3293790000        9.0473690000        2.7837550000
  H         4.3156390000       11.5333880000        9.2034490000
  H         3.0987420000       12.4330430000        9.2444120000
  H         5.9873690000        3.4489740000        3.5905300000
  H         5.8130960000        3.4193440000        2.0869850000
  H         1.0571260000        1.6753440000        4.9693790000
  H         2.2484960000        2.2921190000        5.6708920000
  H         8.5082640000        1.6533370000        7.4644110000
  H         8.0660150000        2.0345970000        6.0676460000
  H         5.1978350000        2.9155420000       11.8215720000
  H         6.6309000000        3.3299810000       12.0793710000
  H        10.7889860000        6.4366720000        2.1279330000
  H        11.6579230000        5.4636020000        1.3598320000
  H         3.5444760000        1.6349580000       10.9777650000
  H         4.7557700000        1.4550540000       10.0876550000
  H         4.4653710000        3.3754590000        5.6652940000
  H         5.6826630000        4.2644300000        5.5244980000
  H         6.1748150000       11.7786760000        1.5829540000
  H         5.7136400000       12.0899240000        0.1749990000
  H         3.4760760000        1.4987080000        2.0289830000
  H         2.7302290000        2.1342950000        3.1829490000
  H         7.1196240000        5.9364500000        7.4740300000
  H         8.5364920000        5.7994050000        6.9586650000
  H         5.9094990000        5.7174770000       11.6676210000
  H         6.1254020000        6.1967580000       13.0873300000
  H        11.2034990000       12.5135360000       11.8048440000
  H        10.2609300000       12.3001530000       12.9701450000
  H         9.9850360000        3.9276850000        2.8781720000
  H         8.5455840000        3.4683290000        2.9723310000
  H         1.3998820000        6.6200920000        7.0932460000
  H         0.9635610000        6.1125230000        5.7353450000
  H         8.0673630000        3.6740020000        9.9799550000
  H         8.0007370000        2.3759590000       10.7561900000
  H        11.8216290000       10.4025100000       12.0204820000
  H        12.2068540000        8.9832420000       12.3798920000
  H         3.4614730000        7.6064850000        7.8896880000
  H         3.8444780000        6.3047110000        8.5609460000
  H         3.1798840000        7.5856140000       11.1484940000
  H         4.4019570000        7.6520300000       12.0395730000
  H        11.5737770000        5.0532110000        7.1695150000
  H        10.3420760000        4.1860830000        7.3208310000
  H        10.0656400000        8.9191940000        1.7609810000
  H         9.6295850000        8.3224990000        0.4397290000
  H         1.3963020000        6.5460790000        9.6256300000
  H         1.4055160000        6.4797590000       11.1380490000
  H         4.0240080000        1.2325180000        5.4058280000
  H         4.7368580000        0.5798810000        6.5710770000
  H         9.4522930000       12.3133810000        8.7327720000
  H         8.9765590000       11.5027880000        7.5459650000
  H         1.8347010000       10.0123110000        0.1534620000
  H         3.2951970000        9.8364030000       -0.2041750000
  H         7.0567240000       11.4017020000        4.0952640000
  H         6.4990380000       10.0202870000        3.8258650000
  H         1.3655410000        0.4873380000       11.0138870000
  H         2.5015910000       -0.4281310000       11.4178710000
  H         8.6442790000        1.8123620000        1.0054090000
  H         8.1426740000        0.3880300000        1.1129550000
  H         1.2726590000        8.3650630000        8.1918880000
  H         2.1424850000        8.8777680000        7.0638670000
  H         8.9614930000        7.8261920000        9.2655230000
  H         9.2271020000        8.4876540000       10.6011180000
  H        10.1501440000        7.7589340000        6.3927680000
  H        10.5960820000        9.1879880000        6.1672900000
  H         3.4631060000        4.0961880000        2.1294140000
  H         3.9194610000        4.5398010000        0.7557910000
  H         7.4189980000        9.3949590000       12.0288760000
  H         7.4304130000        7.8830950000       12.1065460000
  H         7.9729050000       10.2203340000        5.8411960000
  H         7.6751110000        9.6314980000        7.2037250000
  H         5.3324460000        6.3813360000        6.4194730000
  H         5.0000250000        6.4341860000        4.9434660000
  H        11.5750780000        2.2711670000        4.4125400000
  H        11.2198020000        0.8470300000        4.7833570000
  H         8.8653420000        9.7215160000        3.8439980000
  H        10.0007320000       10.7192850000        3.7588980000
  H         3.1861960000       10.4763970000        5.2653330000
  H         4.4073310000       11.3351280000        5.0137230000
  H         0.5581870000        7.2559360000        3.8593310000
  H         0.3416720000        5.7893830000        3.5523460000
  H         7.4599330000        6.5260490000        3.2291930000
  H         6.6962280000        5.4837390000        2.4403720000
  H         3.8648720000        6.3130070000        2.8493850000
  H         2.8764190000        6.6212010000        3.9538620000
  H         5.6315290000        8.0791450000        8.7539970000
  H         7.0032960000        7.5682450000        8.3678220000
  H         9.6154130000        0.5279020000        3.0317550000
  H         8.9629850000        0.1093660000        4.3321620000
  H         3.8258540000       11.1391820000        1.4740870000
  H         4.0639880000       11.0632320000        2.9672110000
  H         5.7843910000        7.9145580000        2.7084860000
  H         4.7804610000        8.6551670000        3.5661100000
  H        10.8806590000        5.4446640000        5.0466070000
  H         9.5933310000        4.6879910000        4.7973500000
  H        11.5623170000        8.9601340000        3.3767650000
  H        11.9260840000        8.8169480000        4.8393200000
  H         2.8568740000       11.2979810000        7.4336600000
  H         1.4923320000       11.1955170000        6.7860330000
  H         7.1458200000        0.0902000000        9.7490090000
  H         7.2272750000        0.0776900000       11.2606650000
  H         4.6620210000        9.5384300000       10.7981550000
  H         5.9945370000        9.8334720000       10.1429850000
  H        10.5442990000        6.5958570000       10.3014450000
  H        11.2817500000        5.6530820000        9.3744940000
  H        12.1030200000        8.8411640000       10.0069160000
  H        11.4915920000        8.5762210000        8.6475570000
     192
 i =        1, time =        0.500, E =     -1101.0392895678
  O        12.2384007026        1.3746361497       10.8693534306
  O         6.4464768577        3.7062252742        8.6497782773
  O         0.0851752616        2.1799369935        8.2746638321
  O        12.0564897076        2.6684142661        2.1486615841
  O        12.2537655586        4.1893097844       12.0925832169
  O         7.1888048129        0.9576039243        4.7361532924
  O         8.3463648265        7.2087782276        4.6692032897
  O        12.3584284166       11.5256699613        8.1051810984
  O         3.2976486000        4.4428056603        9.1911958761
  O         2.8554586232        3.7639240070        6.5513182348
  O         1.3914851037        6.3661001877        0.5846189028
  O         1.8600496602        8.6933410295        2.0711222712
  O         3.7702489946       12.0953713373        8.6495170862
  O         6.4311506029        3.6694294646        2.7741773512
  O         1.9985228522        1.8238466193        4.8763368974
  O         8.2524880144        2.4061206518        6.9319034978
  O         5.7535406236        3.3571899950       12.4638916307
  O        11.3214980939        5.6500619923        2.2376000369
  O         4.2784815490        2.1141848597       10.5903293531
  O         5.4037146869        3.3509684310        5.4855366561
  O         6.4945546039       11.8697588040        0.6889904404
  O         3.2729308023        2.3467525684        2.4242409323
  O         7.9839523370        6.3526956556        7.5067931006
  O         5.9802545765        6.5124770517       12.1948560284
  O        10.6345002472       11.8584018195       12.2081329929
  O         9.3152558391        3.6724420997        3.5112452232
  O         1.1078388324        5.8270663142        6.6396710331
  O         8.0086986122        3.3265609652       10.8699243896
  O        12.3996618410        9.6869258596       11.7629714821
  O         4.2173046865        7.0854246954        8.1525827007
  O         3.7813282075        8.2065869792       11.5650832757
  O        11.0874659901        4.5333012074        7.8115573896
  O        10.3917938107        8.4111561270        1.0202487803
  O         1.9797471070        6.4162033175       10.3725302151
  O         4.6644185723        0.5510791158        5.6159243604
  O         8.7432287843       12.2541762469        8.0896777362
  O         2.6585443906       10.4917816569        0.0919652063
  O         7.2407285710       10.4754547111        4.2279893763
  O         2.2769117815        0.2761329020       10.8101588956
  O         8.8847429462        0.9467839115        1.3341271222
  O         1.9439221900        8.0887246422        7.5642660120
  O         9.6669372279        8.0545682951        9.8675646955
  O        10.9044241011        8.3386943362        6.4838756728
  O         3.5081883082        4.8613090120        1.5571251635
  O         8.0071330822        8.6395197210       12.0556778635
  O         8.3739506505       10.0349032989        6.6882543389
  O         5.6365762396        6.0773481052        5.5597549926
  O        11.7294455105        1.6049500892        5.0794505379
  O         9.7680556893        9.8134951700        3.5477711913
  O         3.9456574824       10.5623265849        4.6879306186
  O         0.8915994005        6.3820646470        4.0656939437
  O         6.8646221884        6.4232181656        2.4903042701
  O         3.8150430121        6.5994545049        3.7646558046
  O         6.5626071956        8.2958335988        8.8075692705
  O         9.8063311196        0.1426745549        3.8830372472
  O         4.1153869011       11.6594470458        2.2210896142
  O         5.2977650168        8.7352931635        2.7619219106
  O         9.9756148785        5.3784903974        5.3431423386
  O        12.2551987893        8.6436409059        3.9597620345
  O         2.3448375213       10.7602142728        6.8281639157
  O         7.0123170392        0.6449962768       10.5208855815
  O         5.1532833039       10.2315634826       10.3595056318
  O        11.1839335371        5.8843585095       10.2974813383
  O        12.2544034762        8.9725138973        9.0722191381
  H        12.4078499830        2.2422788488       11.2473217554
  H        11.9234371291        1.5675119909        9.9954724758
  H         5.6011589409        3.3777486500        8.9821821804
  H         6.7422464265        3.0658718075        8.0163645396
  H        -0.1652920266        1.5666835585        7.5901252383
  H        -0.4482143134        2.9592305275        8.0995755092
  H        12.1311017492        2.8349006880        1.2222109103
  H        12.8891885117        2.9625521221        2.5008608298
  H        11.5569975049        4.3732880578       11.4697037216
  H        12.8140345850        4.9735854303       12.0609391701
  H         7.0422604437        1.7685392459        4.2432567605
  H         6.3443042603        0.7832234659        5.1719787606
  H         7.7727853716        7.3729393564        5.4363285355
  H         9.0996716622        6.7533014318        5.0241916029
  H        12.7748195685       11.7864792587        8.9231177345
  H        12.0193061193       10.6655897005        8.2725706828
  H         3.5537289862        3.7981094434        9.8654119334
  H         2.5269147275        4.8884916944        9.5708214075
  H         2.3176618031        4.5088018424        6.3292812927
  H         2.8673295284        3.7597037078        7.5186587137
  H         1.2012353653        7.1197824611        1.1371821582
  H         2.2371466976        6.0416301951        0.9028722825
  H         2.7634782813        8.8692786191        2.3354598067
  H         1.3350442042        9.0414004302        2.7898672180
  H         4.3303062518       11.5408684742        9.1959773426
  H         3.0950149383       12.4384876087        9.2437325982
  H         5.9808126654        3.4487684786        3.5840989860
  H         5.8161373903        3.4201757907        2.0857910904
  H         1.0517525704        1.6749001359        4.9535316416
  H         2.2461671903        2.2993041967        5.6646527756
  H         8.5002242303        1.6535107582        7.4758466321
  H         8.0684552091        2.0358364915        6.0645131272
  H         5.2030218505        2.9183275248       11.8081072859
  H         6.6358354737        3.3360827744       12.0710075376
  H        10.7875395802        6.4431099057        2.1275977183
  H        11.6584999916        5.4554048291        1.3599953688
  H         3.5335669801        1.6268855561       10.9746183046
  H         4.7654259599        1.4477589425       10.0838616711
  H         4.4655699273        3.3671335642        5.6628747598
  H         5.6860677799        4.2638079135        5.5239843965
  H         6.1960065092       11.7861122567        1.5845593814
  H         5.6988959067       12.0944381991        0.1862665639
  H         3.4844736548        1.4808131854        2.0397120161
  H         2.7162183343        2.1421429382        3.1836584467
  H         7.1170738807        5.9357642960        7.4803717933
  H         8.5471296860        5.7949715423        6.9670220812
  H         5.9181393647        5.7057282717       11.6627523588
  H         6.1372604440        6.2078334729       13.0951321580
  H        11.1822330041       12.5095911632       11.8037169309
  H        10.2632088322       12.2991453298       12.9790661381
  H         9.9683085109        3.9372231069        2.8596357515
  H         8.5503997308        3.4668157603        2.9603398320
  H         1.4005444486        6.6137193545        7.0910442900
  H         0.9689773908        6.1200375647        5.7349463324
  H         8.0663180802        3.6802851598        9.9650505941
  H         8.0117983228        2.3671190491       10.7583164479
  H        11.8232527750       10.4000218731       12.0260523565
  H        12.2051195460        8.9744376059       12.3843395428
  H         3.4606375338        7.5997584925        7.8877715008
  H         3.8479528432        6.3179325593        8.5560599139
  H         3.1717475108        7.5869551227       11.1422639991
  H         4.4129476739        7.6472997468       12.0498276646
  H        11.5672639487        5.0425515771        7.1595589582
  H        10.3445705020        4.1832719687        7.3218100304
  H        10.0737755325        8.9084837626        1.7537966945
  H         9.6241383654        8.3134109288        0.4443705337
  H         1.3866410383        6.5583283183        9.6259104300
  H         1.4036378274        6.4770527937       11.1398639136
  H         4.0386560402        1.2419218083        5.3963266643
  H         4.7340191234        0.5881439854        6.5802769754
  H         9.4511225063       12.3153143490        8.7319901391
  H         8.9682075889       11.4967543882        7.5522543275
  H         1.8312915605       10.0169088025        0.1531922621
  H         3.3003257720        9.8474039506       -0.2036351553
  H         7.0556754453       11.4056167937        4.0974563316
  H         6.5107932001       10.0243914890        3.8317456788
  H         1.3682977404        0.4902310072       11.0307407857
  H         2.5001244254       -0.4266110502       11.4153856450
  H         8.6578535508        1.8178639359        1.0053468647
  H         8.1466989432        0.3856071683        1.1034275901
  H         1.2584012639        8.3619228610        8.1879653737
  H         2.1357585138        8.8806119686        7.0599372428
  H         8.9607059414        7.8271055348        9.2674963855
  H         9.2129931848        8.4823151732       10.5967680112
  H        10.1538175121        7.7551502773        6.4005283079
  H        10.5957657194        9.1841058985        6.1657665708
  H         3.4703357738        4.1071939037        2.1134696799
  H         3.9287527335        4.5450033075        0.7564951980
  H         7.4144006418        9.3882906310       12.0269133719
  H         7.4196253988        7.8701271509       12.1023211809
  H         7.9675116844       10.2110446809        5.8531124565
  H         7.6700464254        9.6143080257        7.2155716117
  H         5.3316051442        6.3932257990        6.4145205313
  H         4.9928052740        6.4237281575        4.9414155902
  H        11.5748881376        2.2514556498        4.4091073662
  H        11.2227529054        0.8377473901        4.7838780623
  H         8.8826981044        9.7218239508        3.8512337675
  H         9.9959287586       10.7287436274        3.7679139074
  H         3.1848656542       10.4828769638        5.2601376305
  H         4.3990307305       11.3446524165        5.0188044773
  H         0.5463122921        7.2567900823        3.8503368503
  H         0.3306592035        5.7799221850        3.5394496323
  H         7.4706324939        6.5267161758        3.2305611047
  H         6.6966744205        5.4808189328        2.4423241655
  H         3.8611984606        6.3135940422        2.8384939716
  H         2.8652690934        6.6153054706        3.9541114975
  H         5.6327151527        8.0742514972        8.7446984154
  H         6.9920457198        7.5679580495        8.3771320229
  H         9.6107764194        0.5512708699        3.0289719917
  H         8.9597925610        0.1061423157        4.3410028712
  H         3.8355954909       11.1456991523        1.4642989508
  H         4.0551366325       11.0494673098        2.9681873248
  H         5.8017644621        7.9150479996        2.7188577185
  H         4.7803567108        8.6636692582        3.5677124997
  H        10.8756447189        5.4517803376        5.0377890560
  H         9.5879811969        4.6927782852        4.7977382788
  H        11.5548123895        8.9665995026        3.3706317482
  H        11.9348251881        8.8167777297        4.8383067425
  H         2.8610156780       11.3000574420        7.4326963820
  H         1.4774635430       11.1901370334        6.7827380751
  H         7.1497134798        0.0931982853        9.7436603108
  H         7.2200786489        0.0868660669       11.2648147405
  H         4.6920289984        9.5288952184       10.7971697536
  H         6.0068240778        9.8271942576       10.1528949960
  H        10.5524256639        6.6026112822       10.3042347249
  H        11.2794174189        5.6543776769        9.3819267383
  H        12.1135610256        8.8528807010        9.9990689745
  H        11.4875687699        8.5845770194        8.6469380541
     192
 i =        2, time =        1.000, E =     -1101.0525539119
  O        12.2414902086        1.3724191779       10.8691091501
  O         6.4475376880        3.7057062360        8.6489076916
  O         0.0844793798        2.1784723194        8.2728540515
  O        12.0602424717        2.6653531748        2.1503607650
  O        12.2575587380        4.1874361532       12.0933297728
  O         7.1904420653        0.9560231255        4.7388021143
  O         8.3460387060        7.2077677995        4.6706018690
  O        12.3553218356       11.5238030905        8.1032355722
  O         3.2953594239        4.4447990187        9.1889694165
  O         2.8553175608        3.7675959269        6.5497185975
  O         1.3903085561        6.3693199665        0.5828252181
  O         1.8613967671        8.6925741021        2.0733543174
  O         3.7703338516       12.0963455752        8.6465618147
  O         6.4300793842        3.6691113377        2.7758677425
  O         1.9985241396        1.8273534119        4.8759669013
  O         8.2563757783        2.4077488382        6.9326269996
  O         5.7532112167        3.3545088787       12.4665141711
  O        11.3207699813        5.6507931354        2.2386025706
  O         4.2797196683        2.1145983244       10.5898722717
  O         5.4026354512        3.3523900709        5.4862004266
  O         6.4960542616       11.8695884052        0.6928296970
  O         3.2706855219        2.3470260415        2.4231154673
  O         7.9869095287        6.3530453510        7.5057162384
  O         5.9744715450        6.5122412184       12.1949839610
  O        10.6322109867       11.8595954446       12.2067424418
  O         9.3182216759        3.6744498041        3.5139827563
  O         1.1086650649        5.8234669087        6.6407548945
  O         8.0094800810        3.3268202924       10.8701853538
  O        12.3965761425        9.6862795070       11.7639058079
  O         4.2152584171        7.0856020450        8.1516203724
  O         3.7811722069        8.2095129403       11.5669524517
  O        11.0860841239        4.5344706817        7.8138606262
  O        10.3963160034        8.4132111257        1.0224886436
  O         1.9806042796        6.4143012040       10.3707822177
  O         4.6684696809        0.5523680967        5.6144735211
  O         8.7404596073       12.2523395139        8.0901020647
  O         2.6551925668       10.4940485900        0.0909815989
  O         7.2400433000       10.4791094203        4.2292015773
  O         2.2771767178        0.2757875875       10.8097486332
  O         8.8819670836        0.9466943230        1.3345015622
  O         1.9443607893        8.0886928611        7.5608658751
  O         9.6661399283        8.0523288221        9.8662213725
  O        10.9036322728        8.3377263815        6.4830333030
  O         3.5086023824        4.8606765574        1.5566729230
  O         8.0039867560        8.6361509457       12.0553382274
  O         8.3736331715       10.0338148780        6.6864509572
  O         5.6382033895        6.0777016222        5.5556357790
  O        11.7306495154        1.6079444818        5.0796719927
  O         9.7653685768        9.8127510432        3.5467168370
  O         3.9471207689       10.5609838526        4.6880351093
  O         0.8930254592        6.3815660417        4.0656942605
  O         6.8666698262        6.4214370674        2.4921897636
  O         3.8161718932        6.6038608141        3.7667230231
  O         6.5629001955        8.2965010792        8.8080798546
  O         9.8033818052        0.1418821996        3.8796105511
  O         4.1138402528       11.6579022702        2.2204751056
  O         5.3002184857        8.7352754376        2.7606005457
  O         9.9792453676        5.3778167448        5.3462199718
  O        12.2558541170        8.6434493887        3.9621875046
  O         2.3453136355       10.7589229899        6.8269348487
  O         7.0111664148        0.6466888577       10.5229156225
  O         5.1543468765       10.2298198463       10.3595100837
  O        11.1837936909        5.8845203579       10.2969328865
  O        12.2566564095        8.9709182125        9.0733036973
  H        12.4011699351        2.2540710939       11.2385138851
  H        11.9240693494        1.5621764164        9.9982913738
  H         5.5931331943        3.3841004759        8.9933523441
  H         6.7554343419        3.0681937535        8.0237080881
  H        -0.1619867081        1.5654827022        7.5881738007
  H        -0.4424904591        2.9672798702        8.0794732348
  H        12.1370835272        2.8449349032        1.2344473718
  H        12.8923647355        2.9560245908        2.4980885492
  H        11.5578227256        4.3618053088       11.4710562693
  H        12.8114217002        4.9880725253       12.0553567129