     192
 i =        0, time =        0.000, E =     -1101.0310058894
  O        -0.0018509208       -0.0308805226        0.0269640129
  O         0.0065505323        0.0201126343        0.0087376792
  O         0.0145446144       -0.0163917632        0.0219656826
  O        -0.0183723305       -0.0103904691        0.0206773243
  O         0.0005685983       -0.0378218686        0.0201943882
  O         0.0395878106       -0.0168455258       -0.0069913556
  O        -0.0151754280        0.0263354577       -0.0281046294
  O        -0.0038474410        0.0273700486       -0.0253165283
  O         0.0110413286        0.0026727121       -0.0298193671
  O         0.0226261246       -0.0342207563       -0.0266294368
  O        -0.0249670418       -0.0120880222       -0.0298473556
  O        -0.0086880229       -0.0121457746       -0.0197409820
  O         0.0109198023        0.0147596703       -0.0411976151
  O         0.0345338928        0.0090574802       -0.0054562877
  O         0.0305620735       -0.0131215916       -0.0305416592
  O        -0.0027187456        0.0338482575        0.0162502764
  O        -0.0125865270        0.0226992060        0.0412132002
  O         0.0000083002       -0.0149500109        0.0282880306
  O         0.0127741660        0.0364569791        0.0041422887
  O         0.0261602707       -0.0367882975       -0.0212998659
  O         0.0343531888        0.0003972842       -0.0151098580
  O         0.0097229456        0.0254281094       -0.0146029023
  O         0.0046093569        0.0233729889        0.0138979574
  O        -0.0063074091        0.0271972961       -0.0086938551
  O         0.0016953765       -0.0355754582       -0.0097418705
  O         0.0039563727       -0.0051797103        0.0203037107
  O        -0.0144736491       -0.0459213052        0.0198769147
  O         0.0107106152        0.0097799543        0.0340067043
  O         0.0318548692       -0.0131454041       -0.0214909229
  O         0.0461434814       -0.0014932884       -0.0044818494
  O         0.0046276422        0.0337037310        0.0040372744
  O         0.0058613522       -0.0068621594        0.0284874908
  O         0.0360130376       -0.0175550687        0.0013062527
  O         0.0241664725       -0.0026984728       -0.0138921412
  O         0.0228967993       -0.0159874989       -0.0063482668
  O        -0.0148750268        0.0299496375        0.0149381582
  O         0.0179867591        0.0459952770        0.0034508346
  O         0.0221912098       -0.0045198560        0.0160280254
  O         0.0263196376        0.0184720337       -0.0180133912
  O         0.0252507206       -0.0020549869        0.0161152725
  O         0.0150893956       -0.0294676577       -0.0069487342
  O         0.0266717094       -0.0086068620       -0.0118450770
  O         0.0320960146       -0.0027683062        0.0067373815
  O        -0.0066128331        0.0435507686       -0.0046878641
  O         0.0279077567        0.0056989305       -0.0070560934
  O         0.0303316498        0.0018468322        0.0115820679
  O         0.0402317777       -0.0170909216        0.0111312003
  O         0.0273357051        0.0103233380        0.0254955265
  O         0.0312302569       -0.0292733056       -0.0125942563
  O         0.0165558655       -0.0332617582       -0.0387289689
  O         0.0367636828       -0.0308626084        0.0262836175
  O        -0.0192237604        0.0245430030       -0.0305621747
  O         0.0166999230        0.0129531581        0.0178639645
  O         0.0227293791        0.0329179621        0.0126261261
  O         0.0279138046       -0.0212498214        0.0163175249
  O         0.0191720864        0.0346759332       -0.0106637469
  O        -0.0012358765        0.0378836897       -0.0094535693
  O         0.0064538555        0.0237450122        0.0399433094
  O         0.0279704660        0.0027831702       -0.0139486026
  O        -0.0029029359       -0.0360466557       -0.0305751193
  O        -0.0061231830        0.0231591222        0.0011254528
  O         0.0022940114        0.0395725716       -0.0082955765
  O         0.0271268378       -0.0188800156        0.0238497568
  O         0.0228180945        0.0033010118       -0.0253006394
  H         0.0051918614        0.0254878129        0.0128837438
  H         0.0005341945        0.0070807564       -0.0375801059
  H        -0.0165305245       -0.0008868311        0.0080813762
  H         0.0162058988       -0.0147571609       -0.0269800052
  H        -0.0040140323       -0.0151679020       -0.0163402400
  H        -0.0140902094        0.0317184227       -0.0070508122
  H         0.0006047083        0.0111725653       -0.0226823952
  H         0.0170642007        0.0037899144        0.0050223484
  H        -0.0200302803        0.0144252559       -0.0198097643
  H         0.0173987888        0.0193210133        0.0046600044
  H        -0.0043796582        0.0168711561       -0.0137394524
  H        -0.0370364839       -0.0014613973        0.0155367107
  H        -0.0184171633       -0.0000276670        0.0139925082
  H         0.0225416369       -0.0239293800        0.0021162489
  H         0.0095037224        0.0042740233        0.0151961600
  H        -0.0026827292       -0.0280857277        0.0114927991
  H         0.0107043501       -0.0235530733        0.0142818631
  H        -0.0188670549        0.0163056216        0.0154099233
  H        -0.0211718151        0.0271107986       -0.0029780016
  H         0.0042381119        0.0031476163        0.0316673557
  H        -0.0010888381        0.0256558195        0.0161468460
  H         0.0247450404       -0.0192296497        0.0131190231
  H         0.0231220425        0.0009650390        0.0005453802
  H        -0.0174907142        0.0061641012        0.0201629353
  H         0.0174964216       -0.0266236328        0.0174218005
  H        -0.0244576342        0.0108403846        0.0238452326
  H        -0.0177575512       -0.0008552966        0.0353586125
  H        -0.0122384370       -0.0086518618       -0.0282977738
  H        -0.0380684441       -0.0121146719        0.0014834387
  H         0.0078334280        0.0286542139        0.0241023617
  H         0.0082350717       -0.0266480980        0.0114949826
  H        -0.0078000342       -0.0120278240       -0.0215301950
  H        -0.0180825390       -0.0198677830       -0.0242450230
  H         0.0291930700        0.0044109506       -0.0195132261
  H        -0.0131799428        0.0236819178       -0.0044489248
  H         0.0116839026       -0.0108982518       -0.0218339366
  H        -0.0311659291       -0.0203255942        0.0063532434
  H         0.0148134521       -0.0154562461       -0.0110827452
  H        -0.0296119677        0.0083213583        0.0105727660
  H         0.0037054347        0.0369449069        0.0048212683
  H        -0.0177598830       -0.0051342521        0.0216748758
  H        -0.0154475579        0.0041942496       -0.0092205968
  H         0.0075623819       -0.0212363985       -0.0074807179
  H        -0.0164440613       -0.0066166665        0.0336247270
  H        -0.0184242435       -0.0176628388       -0.0005593187
  H         0.0159753681       -0.0127829015       -0.0123924468
  H        -0.0000132251       -0.0176702584       -0.0131357010
  H         0.0075125543       -0.0015295404        0.0258994914
  H         0.0160349333        0.0234976502       -0.0147950852
  H        -0.0131952396        0.0119777544        0.0177196086
  H         0.0246566521        0.0090716505       -0.0158689404
  H        -0.0272233484       -0.0014066603       -0.0065162084
  H         0.0118626349        0.0304307263        0.0100610894
  H        -0.0052237322        0.0097340665       -0.0389018156
  H        -0.0100492043        0.0103380661       -0.0191112638
  H        -0.0057149144       -0.0268350670       -0.0066271664
  H        -0.0261036592        0.0257444196        0.0086301460
  H        -0.0128139288       -0.0146034846        0.0156966299
  H        -0.0288398816        0.0168862111       -0.0056737836
  H        -0.0025114885       -0.0250386401        0.0124939387
  H        -0.0222380439       -0.0146821307       -0.0205767479
  H         0.0257778509       -0.0159887341        0.0123053239
  H         0.0224154131        0.0130653491       -0.0147924221
  H        -0.0205502024       -0.0068142891       -0.0105809991
  H        -0.0100627336        0.0172684500        0.0227142987
  H        -0.0243789805        0.0018664026       -0.0146083805
  H        -0.0132891904        0.0080957291       -0.0154329246
  H        -0.0152401784        0.0011318655        0.0337687922
  H        -0.0193421140        0.0124144172       -0.0132527164
  H        -0.0013746609       -0.0027712845        0.0245974203
  H         0.0139059060        0.0028397832        0.0126836105
  H        -0.0049017765       -0.0293003965       -0.0214931461
  H        -0.0273893817       -0.0111921657        0.0015667479
  H         0.0121273912       -0.0258702287       -0.0102921323
  H        -0.0004052559        0.0287249225        0.0001853092
  H        -0.0251024475       -0.0255635548       -0.0157954534
  H        -0.0338427232        0.0172384206       -0.0017302348
  H         0.0093088906       -0.0350246025        0.0223741007
  H        -0.0010228969        0.0173874331       -0.0055125506
  H        -0.0275436754       -0.0184960612       -0.0079208496
  H        -0.0288350470        0.0164923780        0.0272900763
  H         0.0050649053        0.0332449915       -0.0144304954
  H        -0.0154951958       -0.0070133403       -0.0130199283
  H        -0.0174738122        0.0117193085        0.0244181198
  H        -0.0162828032       -0.0092320409       -0.0032572094
  H        -0.0184091237        0.0179883393       -0.0018178346
  H        -0.0055119583       -0.0318474694        0.0149267317
  H         0.0147312548       -0.0073617790       -0.0148754529
  H        -0.0082489526        0.0184083354        0.0038652058
  H        -0.0198336140       -0.0283223790        0.0000315183
  H        -0.0153380357        0.0049759043       -0.0309093539
  H        -0.0157632255       -0.0110514080        0.0186193071
  H        -0.0144205649        0.0070875056        0.0245797892
  H        -0.0253328318        0.0046577069       -0.0290852700
  H        -0.0083560654        0.0114389781       -0.0158512327
  H        -0.0208238153       -0.0186244982       -0.0127923450
  H        -0.0280493245       -0.0046316833        0.0046079274
  H         0.0037993749        0.0338911326       -0.0012520471
  H        -0.0217118354        0.0033045807        0.0223525355
  H         0.0071083063        0.0265358577        0.0114704490
  H        -0.0174351299        0.0350889360       -0.0049861273
  H        -0.0153718390       -0.0136606374       -0.0218248619
  H         0.0228236926        0.0105074399        0.0297020112
  H        -0.0084784804       -0.0332180983        0.0075924908
  H         0.0049813764       -0.0133317658       -0.0236249984
  H        -0.0300339894       -0.0032830720        0.0060048008
  H        -0.0334162376       -0.0116776585       -0.0036697488
  H         0.0143416567       -0.0144197383       -0.0089607210
  H        -0.0058534255        0.0141203715       -0.0296351219
  H        -0.0229197240        0.0074783834        0.0133598740
  H        -0.0174542712       -0.0127515924       -0.0224564814
  H        -0.0056562809       -0.0149813308        0.0331634274
  H         0.0180562977       -0.0313199014       -0.0049483374
  H        -0.0145863106       -0.0018420798        0.0181092068
  H         0.0196618608        0.0046602580       -0.0055860591
  H        -0.0209209768       -0.0292178052       -0.0292962268
  H        -0.0250024183        0.0074130283       -0.0113823084
  H        -0.0092020477       -0.0048388798        0.0245585784
  H         0.0259471824        0.0162044594        0.0278791191
  H        -0.0247677343        0.0082702445        0.0046772283
  H         0.0080259760       -0.0097960087       -0.0223594126
  H         0.0033867269       -0.0121469355        0.0199527242
  H        -0.0206563786       -0.0287796578        0.0104300434
  H         0.0178447221       -0.0119177358       -0.0121562397
  H        -0.0229393585        0.0276170873       -0.0001943518
  H        -0.0028657194       -0.0145589988       -0.0247250051
  H        -0.0006563104        0.0080047687        0.0338968370
  H        -0.0216427706       -0.0112120199       -0.0135634296
     192
 i =        1, time =        0.500, E =     -1101.0392895678
  O         0.0013935141       -0.0272323675        0.0364121786
  O        -0.0033572412        0.0252415430        0.0187210715
  O         0.0136543426       -0.0102762570        0.0244288930
  O        -0.0235977117       -0.0141059154        0.0305184066
  O         0.0082063844       -0.0326878519        0.0228747920
  O         0.0328198998       -0.0158299339       -0.0045752950
  O        -0.0301766019        0.0324206633       -0.0207298766
  O         0.0014191888        0.0436199624       -0.0309089607
  O         0.0059623810        0.0004770220       -0.0190046790
  O         0.0295790484       -0.0442544853       -0.0132693744
  O        -0.0216251833       -0.0164343651       -0.0310331525
  O        -0.0074237569       -0.0122483849       -0.0196353455
  O         0.0086245108        0.0157238542       -0.0373239744
  O         0.0369138906        0.0103718302       -0.0088950596
  O         0.0261119184       -0.0158433047       -0.0344263500
  O        -0.0024831036        0.0306393699        0.0158661842
  O        -0.0072273317        0.0203659046        0.0341704548
  O        -0.0018324706       -0.0118475363        0.0258618885
  O         0.0096187629        0.0238120243        0.0027817197
  O         0.0285165605       -0.0386697844       -0.0220423877
  O         0.0287714936        0.0037145358       -0.0308521030
  O         0.0095345404        0.0124996484       -0.0161748755
  O         0.0010131773        0.0214173268        0.0129037152
  O        -0.0061409076        0.0182022906       -0.0103314859
  O        -0.0097396752       -0.0433654107        0.0021226462
  O        -0.0009032254       -0.0065004404        0.0111330261
  O        -0.0164589848       -0.0470448669        0.0139086725
  O         0.0115905145        0.0079150216        0.0199384400
  O         0.0325646458       -0.0215685394       -0.0175626862
  O         0.0555999631        0.0087266563       -0.0096779242
  O         0.0093893505        0.0206359269        0.0074685236
  O         0.0064679801       -0.0065440117        0.0284868496
  O         0.0356502569       -0.0272332401       -0.0163709046
  O         0.0162610855       -0.0018614396       -0.0153771004
  O         0.0231582153       -0.0160120277        0.0035859365
  O        -0.0152157000        0.0314759339        0.0167160020
  O         0.0186757543        0.0484065278        0.0040226942
  O         0.0318806738        0.0019345957        0.0217765351
  O         0.0232379964        0.0217712182       -0.0196267278
  O         0.0276283213        0.0004514600        0.0170675341
  O         0.0090820174       -0.0263683779       -0.0020830283
  O         0.0267616867       -0.0062905475       -0.0078707234
  O         0.0354810825       -0.0031332603        0.0082498036
  O        -0.0053187294        0.0594037636       -0.0178525928
  O         0.0229073847       -0.0054815505       -0.0062559254
  O         0.0229433347       -0.0077032009        0.0324122843
  O         0.0384271729       -0.0154255640        0.0153231109
  O         0.0248296858       -0.0064103034        0.0317205759
  O         0.0504602937       -0.0161619070       -0.0158070505
  O         0.0207419805       -0.0282895028       -0.0374233226
  O         0.0236898888       -0.0356335350        0.0144949105
  O        -0.0164526270        0.0235709700       -0.0279618002
  O         0.0063035636        0.0095199538        0.0077927325
  O         0.0172593063        0.0382944894        0.0159061169
  O         0.0225171090       -0.0183048683        0.0114873444
  O         0.0181166031        0.0300774818       -0.0032405843
  O         0.0007032755        0.0322615363       -0.0077748677
  O         0.0018846035        0.0225666527        0.0404115741
  O         0.0212236435        0.0053629530       -0.0284503886
  O        -0.0112745596       -0.0298681646       -0.0297942397
  O        -0.0066640435        0.0237732184       -0.0075510911
  O         0.0166742335        0.0408741802       -0.0145989725
  O         0.0263933119       -0.0171118303        0.0321453388
  O         0.0237929526        0.0041815535       -0.0391583578
  H         0.0049485623        0.0214399548        0.0120378418
  H        -0.0026727551        0.0077314830       -0.0459904738
  H        -0.0080667086        0.0011878442        0.0038191460
  H         0.0176132985       -0.0219313029       -0.0329838946
  H        -0.0049378844       -0.0186122118       -0.0197601182
  H        -0.0122040866        0.0291713093       -0.0060034519
  H         0.0003902884        0.0129735901       -0.0368231484
  H         0.0228808462        0.0055367120        0.0090353617
  H        -0.0237062344        0.0149699037       -0.0226326886
  H         0.0132742806        0.0138929607        0.0051143648
  H        -0.0044561540        0.0143935577       -0.0121114484
  H        -0.0300710546        0.0002475651        0.0117834301
  H        -0.0093497891       -0.0031214998        0.0026680417
  H         0.0286897466       -0.0272036678        0.0060130804
  H         0.0111052285        0.0052871645        0.0177553225
  H        -0.0098657530       -0.0453129418        0.0142401347
  H         0.0075714995       -0.0170102507        0.0071532687
  H        -0.0103644696        0.0117056881        0.0112492600
  H        -0.0280265244        0.0368450729       -0.0067719628
  H         0.0047379136        0.0029354170        0.0221391012
  H        -0.0018513183        0.0285005752        0.0181416557
  H         0.0222372046       -0.0182638969        0.0120243682
  H         0.0228367054        0.0006443612       -0.0004292416
  H        -0.0186517274        0.0064573555        0.0208849604
  H         0.0149828771       -0.0248831416        0.0166362560
  H        -0.0199507178        0.0080507544        0.0210181835
  H        -0.0196535447       -0.0019471985        0.0395595303
  H        -0.0126223555       -0.0090321778       -0.0294991853
  H        -0.0334915988       -0.0108308009        0.0023177241
  H         0.0076510894        0.0302941327        0.0274080033
  H         0.0070552985       -0.0239835842        0.0081065223
  H        -0.0072291854       -0.0114266376       -0.0178734591
  H        -0.0164194351       -0.0181232844       -0.0206837731
  H         0.0222071085        0.0047431933       -0.0157534981
  H        -0.0097685761        0.0194816860       -0.0044905707
  H         0.0103767216       -0.0098959826       -0.0195103795
  H        -0.0221709933       -0.0149553428        0.0016095639
  H         0.0091495745       -0.0078690294       -0.0050190245
  H        -0.0313051575        0.0097010344        0.0109243212
  H         0.0027499351        0.0375499548        0.0052355379
  H        -0.0203647965       -0.0060528636        0.0311856570
  H        -0.0067056247        0.0016726586       -0.0031700173
  H         0.0044857746       -0.0099451225       -0.0012849029
  H        -0.0125945512       -0.0055540245        0.0288018979
  H        -0.0129475992       -0.0161608389       -0.0010409999
  H         0.0141408038       -0.0123225277       -0.0112004099
  H         0.0007578168       -0.0089952710       -0.0056334424
  H         0.0068784180       -0.0006523357        0.0208454307
  H         0.0253552009        0.0340502717       -0.0216663866
  H        -0.0110218319        0.0091976349        0.0132060056
  H         0.0256419510        0.0094429789       -0.0124052649
  H        -0.0236289118       -0.0007987668       -0.0002819343
  H         0.0133590558        0.0334080379        0.0129015383
  H        -0.0052162076        0.0076862052       -0.0358514604
  H        -0.0113156962        0.0037669415       -0.0049939865
  H        -0.0058345285       -0.0182143018       -0.0063068734
  H        -0.0280823184        0.0280472259        0.0097046494
  H        -0.0112094092       -0.0082052860        0.0104335344
  H        -0.0326934250        0.0206121813       -0.0075715888
  H        -0.0081888349       -0.0383928025        0.0194774618
  H        -0.0156587263       -0.0096282055       -0.0157850762
  H         0.0146762826       -0.0085111069        0.0040974267
  H         0.0234127073        0.0140297837       -0.0150128537
  H        -0.0222050780       -0.0081896862       -0.0103996354
  H        -0.0157551244        0.0263491051        0.0358502238
  H        -0.0186795320        0.0024960620       -0.0104796426
  H        -0.0087464658        0.0076138866       -0.0106330930
  H        -0.0119051991        0.0010007766        0.0305338245
  H        -0.0189406610        0.0124016488       -0.0132215994
  H        -0.0023545090       -0.0029079185        0.0145624703
  H         0.0137183565        0.0026797672        0.0120984255
  H        -0.0044418192       -0.0307885042       -0.0226083714
  H        -0.0275151587       -0.0125426428        0.0011566948
  H         0.0117351084       -0.0269682803       -0.0108579811
  H        -0.0006293049        0.0282582515        0.0000862613
  H        -0.0346706190       -0.0311100143       -0.0212327924
  H        -0.0322766699        0.0171772149       -0.0027096507
  H         0.0111420002       -0.0381796587        0.0245562172
  H        -0.0015185269        0.0151161187       -0.0055318477
  H        -0.0291944939       -0.0183802154       -0.0087357324
  H        -0.0225342475        0.0140851656        0.0217916065
  H         0.0051799693        0.0323429294       -0.0134819439
  H        -0.0173384674       -0.0085098470       -0.0164310487
  H        -0.0156893320        0.0112871765        0.0238031130
  H        -0.0185917848       -0.0107702832       -0.0036296554
  H        -0.0194833659        0.0198143537       -0.0028570973
  H        -0.0067303653       -0.0481615415        0.0283106403
  H         0.0145045079       -0.0064342306       -0.0146944792
  H        -0.0097786674        0.0203004877        0.0038910377
  H        -0.0133332151       -0.0191916282       -0.0006913363
  H        -0.0206721919        0.0075245178       -0.0420866845
  H        -0.0030812098       -0.0039574988        0.0093029021
  H        -0.0125864473        0.0055806259        0.0212000214
  H        -0.0250881294        0.0045770473       -0.0297290626
  H        -0.0105998701        0.0220997844       -0.0259074965
  H        -0.0164600383       -0.0125484954       -0.0092864822
  H        -0.0452936787       -0.0078391074        0.0104729230
  H         0.0019146565        0.0241411582       -0.0042036832
  H        -0.0240305694        0.0020644908        0.0232823195
  H         0.0052510171        0.0226141213        0.0088953304
  H        -0.0145592607        0.0292785689       -0.0028198755
  H        -0.0049858049       -0.0028249099       -0.0117709021
  H         0.0197476061        0.0099349453        0.0262393044
  H        -0.0081852070       -0.0318339950        0.0082161965
  H         0.0046794457       -0.0095191693       -0.0114585369
  H        -0.0197072714       -0.0033389084        0.0040073103
  H        -0.0339536289       -0.0100619710       -0.0030495333
  H         0.0203314600       -0.0214191681       -0.0129072282
  H        -0.0051215326        0.0097666104       -0.0209000193
  H        -0.0180504937        0.0081878103        0.0098005699
  H        -0.0175569894       -0.0131093679       -0.0222825657
  H        -0.0049305867       -0.0095389653        0.0261138936
  H         0.0138576244       -0.0257405025       -0.0039456478
  H        -0.0124768149       -0.0021596604        0.0151116887
  H         0.0236266550        0.0048130226       -0.0071663384
  H        -0.0198130732       -0.0282705302       -0.0284781022
  H        -0.0159677495        0.0035277061       -0.0024996890
  H        -0.0116561978       -0.0034884934        0.0300198546
  H         0.0229195732        0.0148775872        0.0256663500
  H        -0.0135360310        0.0037600669        0.0061635013
  H         0.0078157072       -0.0072004447       -0.0167553798
  H         0.0041458924       -0.0154487322        0.0228614217
  H        -0.0283224343       -0.0353692114        0.0157599487
  H         0.0107837551       -0.0060236077       -0.0112384818
  H        -0.0231023877        0.0278018500       -0.0002808682
  H        -0.0018207072       -0.0165691814       -0.0331067166
  H        -0.0030020340        0.0059072666        0.0460866799
  H        -0.0202309743       -0.0105039484       -0.0118130576
     192
 i =        2, time =        1.000, E =     -1101.0525539119
  O         0.0032986271       -0.0199510663        0.0417407879
  O        -0.0118443496        0.0271017445        0.0253921108
  O         0.0098510223       -0.0034315379        0.0236731045
  O        -0.0262578493       -0.0164242390        0.0370697067
  O         0.0134836234       -0.0247891468        0.0226250119
  O         0.0228286287       -0.0136163541       -0.0022865962
  O        -0.0409337975        0.0361746423       -0.0124320522
  O         0.0059634405        0.0557719483       -0.0334129115
  O         0.0001416797       -0.0021822003       -0.0072471554
  O         0.0335821957       -0.0495982515        0.0000117843
  O        -0.0162855281       -0.0183442798       -0.0285627626
  O        -0.0055937498       -0.0106467135       -0.0168860665
  O         0.0065011166        0.0155841638       -0.0298363116
  O         0.0346433031        0.0094577727       -0.0105927494
  O         0.0191960413       -0.0168157613       -0.0343290521
  O        -0.0019644673        0.0239268991        0.0147595962
  O        -0.0017158521        0.0166302907        0.0236517817
  O        -0.0038529406       -0.0076523762        0.0207769095
  O         0.0056504427        0.0101864640        0.0018334514
  O         0.0280134085       -0.0363008018       -0.0220247108
  O         0.0212340172        0.0064285717       -0.0415737114
  O         0.0075555563       -0.0009251674       -0.0144862976
  O        -0.0025777487        0.0169458731        0.0103604625
  O        -0.0047176737        0.0078259545       -0.0092617598
  O        -0.0181724192       -0.0471161743        0.0130257560
  O        -0.0041201574       -0.0071433406       -0.0014967706
  O        -0.0175861154       -0.0434936946        0.0063483870
  O         0.0124842981        0.0038409763        0.0067219192
  O         0.0300353742       -0.0268606675       -0.0114456105
  O         0.0595505441        0.0176883814       -0.0143096335
  O         0.0126943769        0.0067451804        0.0102163317
  O         0.0063811449       -0.0056737321        0.0241675569
  O         0.0317277113       -0.0342809481       -0.0308406517
  O         0.0060498371        0.0000349455       -0.0157548587
  O         0.0213519508       -0.0134137105        0.0134698497
  O        -0.0127175317        0.0297311372        0.0174112802
  O         0.0185184315        0.0466036462        0.0034291198
  O         0.0363972897        0.0085036979        0.0244018866
  O         0.0178914042        0.0217365300       -0.0166346502
  O         0.0261476144        0.0020501562        0.0163929909
  O         0.0018573712       -0.0192987901        0.0026857389
  O         0.0225562324       -0.0029213283       -0.0031624347
  O         0.0357168024       -0.0024897179        0.0084019684
  O        -0.0033943037        0.0697241396       -0.0294527746
  O         0.0150732366       -0.0153704201       -0.0059078302
  O         0.0147954632       -0.0156566465        0.0472602844
  O         0.0333954370       -0.0111338025        0.0186850996
  O         0.0207962116       -0.0213855942        0.0348687558
  O         0.0646988498       -0.0025370182       -0.0171317756
  O         0.0225274542       -0.0214268047       -0.0327966663
  O         0.0101421435       -0.0364845022        0.0026929388
  O        -0.0121038233        0.0197839790       -0.0228487989
  O        -0.0052711915        0.0060421986       -0.0024246357
  O         0.0098190648        0.0400236657        0.0169214610
  O         0.0148927966       -0.0141551563        0.0061533134
  O         0.0160933470        0.0221274202        0.0026639320
  O         0.0033743044        0.0241673695       -0.0044675600
  O        -0.0015729055        0.0180893160        0.0371862768
  O         0.0131996166        0.0088266788       -0.0394529961
  O        -0.0180026062       -0.0214814424       -0.0265287451
  O        -0.0059622857        0.0211931859       -0.0148759953
  O         0.0282462314        0.0373564289       -0.0177711960
  O         0.0235562746       -0.0133583740        0.0367100893
  O         0.0217079001        0.0028301559       -0.0490678649
  H         0.0041381175        0.0146559729        0.0100465482
  H        -0.0038059027        0.0074551056       -0.0491603055
  H         0.0007411347        0.0029392040       -0.0008974756
  H         0.0173821631       -0.0254687398       -0.0352042589
  H        -0.0050537605       -0.0195814170       -0.0205423231
  H        -0.0083451107        0.0234294659       -0.0040389374
  H         0.0001777891        0.0144006957       -0.0463516102
  H         0.0261171135        0.0062891739        0.0116874300
  H        -0.0239203466        0.0147316068       -0.0225427729
  H         0.0081333027        0.0064433076        0.0055299873